
Host: MacBook-Pro-4.local

Timers On : Mon Oct 10 12:17:06 2022
Timers Off: Mon Oct 10 12:31:16 2022

Wall Time:      849.57 seconds

                                                       Time (seconds)
Module                                       User      System        Wall        Calls

--------------------------------------------------------------------------------------

**************************************************************************************
