
Host: a002v96n001

Timers On : Fri Jun 23 12:47:49 2023
Timers Off: Fri Jun 23 12:47:49 2023

Wall Time:        0.39 seconds

                                                       Time (seconds)
Module                                       User      System        Wall        Calls

--------------------------------------------------------------------------------------

**************************************************************************************

Host: a002v96n001

Timers On : Fri Jun 23 12:47:49 2023
Timers Off: Fri Jun 23 12:47:49 2023

Wall Time:        0.39 seconds

                                                       Time (seconds)
Module                                       User      System        Wall        Calls

--------------------------------------------------------------------------------------

**************************************************************************************

Host: a002v96n001

Timers On : Fri Jun 23 12:47:49 2023
Timers Off: Fri Jun 23 12:47:49 2023

Wall Time:        0.39 seconds

                                                       Time (seconds)
Module                                       User      System        Wall        Calls

--------------------------------------------------------------------------------------

**************************************************************************************

Host: a002v96n001

Timers On : Fri Jun 23 12:47:49 2023
Timers Off: Fri Jun 23 12:47:49 2023

Wall Time:        0.39 seconds

                                                       Time (seconds)
Module                                       User      System        Wall        Calls

--------------------------------------------------------------------------------------

**************************************************************************************

Host: a002v96n001

Timers On : Fri Jun 23 12:47:49 2023
Timers Off: Fri Jun 23 12:47:49 2023

Wall Time:        0.43 seconds

                                                       Time (seconds)
Module                                       User      System        Wall        Calls

--------------------------------------------------------------------------------------

**************************************************************************************

Host: a002v96n001

Timers On : Fri Jun 23 12:47:49 2023
Timers Off: Fri Jun 23 12:47:49 2023

Wall Time:        0.38 seconds

                                                       Time (seconds)
Module                                       User      System        Wall        Calls

--------------------------------------------------------------------------------------

**************************************************************************************

Host: a002v96n001

Timers On : Fri Jun 23 12:47:49 2023
Timers Off: Fri Jun 23 12:47:49 2023

Wall Time:        0.37 seconds

                                                       Time (seconds)
Module                                       User      System        Wall        Calls

--------------------------------------------------------------------------------------

**************************************************************************************

Host: a002v96n001

Timers On : Fri Jun 23 12:47:49 2023
Timers Off: Fri Jun 23 12:47:49 2023

Wall Time:        0.38 seconds

                                                       Time (seconds)
Module                                       User      System        Wall        Calls

--------------------------------------------------------------------------------------

**************************************************************************************

Host: a002v96n001


Timers On : Fri Jun 23 12:47:49 2023
Host: a002v96n001

Timers Off: Fri Jun 23 12:47:50 2023

Wall Time:        0.40 seconds

Timers On : Fri Jun 23 12:47:49 2023
                                                       Time (seconds)
Module                                       User      System        Wall        Calls
Timers Off: Fri Jun 23 12:47:50 2023

--------------------------------------------------------------------------------------

Wall Time:        0.42 seconds


**************************************************************************************
                                                       Time (seconds)
Module                                       User      System        Wall        Calls

--------------------------------------------------------------------------------------

**************************************************************************************

Host: a002v96n001

Timers On : Fri Jun 23 12:47:49 2023
Timers Off: Fri Jun 23 12:47:50 2023

Wall Time:        0.39 seconds

                                                       Time (seconds)
Module                                       User      System        Wall        Calls

--------------------------------------------------------------------------------------

**************************************************************************************

Host: a002v96n001

Timers On : Fri Jun 23 12:47:49 2023
Timers Off: Fri Jun 23 12:47:50 2023

Wall Time:        0.44 seconds

                                                       Time (seconds)
Module                                       User      System        Wall        Calls

--------------------------------------------------------------------------------------

**************************************************************************************

Host: a002v96n001

Timers On : Fri Jun 23 12:47:49 2023
Timers Off: Fri Jun 23 12:47:50 2023

Wall Time:        0.38 seconds

                                                       Time (seconds)
Module                                       User      System        Wall        Calls

--------------------------------------------------------------------------------------

**************************************************************************************

Host: a002v96n001

Timers On : Fri Jun 23 12:47:49 2023
Timers Off: Fri Jun 23 12:47:50 2023

Wall Time:        0.38 seconds

                                                       Time (seconds)
Module                                       User      System        Wall        Calls

--------------------------------------------------------------------------------------

**************************************************************************************

Host: a002v96n001

Timers On : Fri Jun 23 12:47:49 2023
Timers Off: Fri Jun 23 12:47:50 2023

Wall Time:        0.39 seconds

                                                       Time (seconds)
Module                                       User      System        Wall        Calls

--------------------------------------------------------------------------------------

**************************************************************************************

Host: a002v96n001

Timers On : Fri Jun 23 12:47:49 2023
Timers Off: Fri Jun 23 12:47:50 2023

Wall Time:        0.47 seconds

                                                       Time (seconds)
Module                                       User      System        Wall        Calls

--------------------------------------------------------------------------------------

**************************************************************************************

Host: a002v96n001

Timers On : Fri Jun 23 12:47:49 2023
Timers Off: Fri Jun 23 12:47:50 2023

Wall Time:        0.38 seconds

                                                       Time (seconds)
Module                                       User      System        Wall        Calls

--------------------------------------------------------------------------------------

**************************************************************************************

Host: a002v96n001

Timers On : Fri Jun 23 12:47:49 2023
Timers Off: Fri Jun 23 12:47:50 2023

Wall Time:        0.41 seconds

                                                       Time (seconds)
Module                                       User      System        Wall        Calls

--------------------------------------------------------------------------------------

**************************************************************************************

Host: a002v96n001

Timers On : Fri Jun 23 12:47:49 2023
Timers Off: Fri Jun 23 12:47:50 2023

Wall Time:        0.38 seconds

                                                       Time (seconds)
Module                                       User      System        Wall        Calls

--------------------------------------------------------------------------------------

**************************************************************************************

Host: a002v96n001

Timers On : Fri Jun 23 12:47:49 2023
Timers Off: Fri Jun 23 12:47:50 2023

Wall Time:        0.38 seconds

                                                       Time (seconds)
Module                                       User      System        Wall        Calls

--------------------------------------------------------------------------------------

**************************************************************************************

Host: a002v96n001

Timers On : Fri Jun 23 12:47:49 2023
Timers Off: Fri Jun 23 12:47:50 2023

Wall Time:        0.38 seconds

                                                       Time (seconds)
Module                                       User      System        Wall        Calls

--------------------------------------------------------------------------------------

**************************************************************************************

Host: a002v96n001

Timers On : Fri Jun 23 12:47:49 2023
Timers Off: Fri Jun 23 12:47:50 2023

Wall Time:        0.38 seconds

                                                       Time (seconds)
Module                                       User      System        Wall        Calls

--------------------------------------------------------------------------------------

**************************************************************************************

Host: a002v96n001

Timers On : Fri Jun 23 12:47:49 2023
Timers Off: Fri Jun 23 12:47:50 2023

Wall Time:        0.44 seconds

                                                       Time (seconds)
Module                                       User      System        Wall        Calls

--------------------------------------------------------------------------------------

**************************************************************************************

Host: a002v96n001

Timers On : Fri Jun 23 12:47:49 2023
Timers Off: Fri Jun 23 12:47:50 2023

Wall Time:        0.43 seconds

                                                       Time (seconds)
Module                                       User      System        Wall        Calls

--------------------------------------------------------------------------------------

**************************************************************************************

Host: a002v96n001

Timers On : Fri Jun 23 13:15:20 2023
Timers Off: Fri Jun 23 13:15:20 2023

Wall Time:        0.41 seconds

                                                       Time (seconds)
Module                                       User      System        Wall        Calls

--------------------------------------------------------------------------------------

**************************************************************************************

Host: a002v96n001

Timers On : Fri Jun 23 13:15:20 2023
Timers Off: Fri Jun 23 13:15:20 2023

Wall Time:        0.38 seconds

                                                       Time (seconds)
Module                                       User      System        Wall        Calls

--------------------------------------------------------------------------------------

**************************************************************************************

Host: a002v96n001

Timers On : Fri Jun 23 13:15:20 2023
Timers Off: Fri Jun 23 13:15:20 2023

Wall Time:        0.40 seconds

                                                       Time (seconds)
Module                                       User      System        Wall        Calls

--------------------------------------------------------------------------------------

**************************************************************************************

Host: a002v96n001

Timers On : Fri Jun 23 13:15:20 2023
Timers Off: Fri Jun 23 13:15:20 2023

Wall Time:        0.39 seconds

                                                       Time (seconds)
Module                                       User      System        Wall        Calls

--------------------------------------------------------------------------------------

**************************************************************************************

Host: a002v96n001

Timers On : Fri Jun 23 13:15:20 2023
Timers Off: Fri Jun 23 13:15:20 2023

Wall Time:        0.40 seconds

                                                       Time (seconds)
Module                                       User      System        Wall        Calls

--------------------------------------------------------------------------------------

**************************************************************************************

Host: a002v96n001

Timers On : Fri Jun 23 13:15:20 2023
Timers Off: Fri Jun 23 13:15:20 2023

Wall Time:        0.41 seconds

                                                       Time (seconds)
Module                                       User      System        Wall        Calls

--------------------------------------------------------------------------------------

**************************************************************************************

Host: a002v96n001

Timers On : Fri Jun 23 13:15:20 2023
Timers Off: Fri Jun 23 13:15:20 2023

Wall Time:        0.38 seconds

                                                       Time (seconds)
Module                                       User      System        Wall        Calls

--------------------------------------------------------------------------------------

**************************************************************************************

Host: a002v96n001

Timers On : Fri Jun 23 13:15:20 2023
Timers Off: Fri Jun 23 13:15:20 2023

Wall Time:        0.38 seconds

                                                       Time (seconds)
Module                                       User      System        Wall        Calls

--------------------------------------------------------------------------------------

**************************************************************************************

Host: a002v96n001

Timers On : Fri Jun 23 13:15:20 2023
Timers Off: Fri Jun 23 13:15:20 2023

Wall Time:        0.39 seconds

                                                       Time (seconds)
Module                                       User      System        Wall        Calls

--------------------------------------------------------------------------------------

**************************************************************************************

Host: a002v96n001

Timers On : Fri Jun 23 13:15:20 2023
Timers Off: Fri Jun 23 13:15:20 2023

Wall Time:        0.38 seconds

                                                       Time (seconds)
Module                                       User      System        Wall        Calls

--------------------------------------------------------------------------------------

**************************************************************************************

Host: a002v96n001

Timers On : Fri Jun 23 13:15:20 2023
Timers Off: Fri Jun 23 13:15:20 2023

Wall Time:        0.38 seconds

                                                       Time (seconds)
Module                                       User      System        Wall        Calls

--------------------------------------------------------------------------------------

**************************************************************************************

Host: a002v96n001

Timers On : Fri Jun 23 13:15:20 2023
Timers Off: Fri Jun 23 13:15:20 2023

Wall Time:        0.38 seconds

                                                       Time (seconds)
Module                                       User      System        Wall        Calls

--------------------------------------------------------------------------------------

**************************************************************************************

Host: a002v96n001

Timers On : Fri Jun 23 13:15:20 2023
Timers Off: Fri Jun 23 13:15:20 2023

Wall Time:        0.38 seconds

                                                       Time (seconds)
Module                                       User      System        Wall        Calls

--------------------------------------------------------------------------------------

**************************************************************************************

Host: a002v96n001

Timers On : Fri Jun 23 13:15:20 2023
Timers Off: Fri Jun 23 13:15:20 2023

Wall Time:        0.38 seconds

                                                       Time (seconds)
Module                                       User      System        Wall        Calls

--------------------------------------------------------------------------------------

**************************************************************************************

Host: a002v96n001

Timers On : Fri Jun 23 13:15:20 2023
Timers Off: Fri Jun 23 13:15:20 2023

Wall Time:        0.37 seconds

                                                       Time (seconds)
Module                                       User      System        Wall        Calls

--------------------------------------------------------------------------------------

**************************************************************************************

Host: a002v96n001

Timers On : Fri Jun 23 13:15:20 2023
Timers Off: Fri Jun 23 13:15:20 2023

Wall Time:        0.38 seconds

                                                       Time (seconds)
Module                                       User      System        Wall        Calls

--------------------------------------------------------------------------------------

**************************************************************************************

Host: a002v96n001

Timers On : Fri Jun 23 13:15:20 2023
Timers Off: Fri Jun 23 13:15:20 2023

Wall Time:        0.38 seconds

                                                       Time (seconds)
Module                                       User      System        Wall        Calls

--------------------------------------------------------------------------------------

**************************************************************************************

Host: a002v96n001

Timers On : Fri Jun 23 13:15:20 2023
Timers Off: Fri Jun 23 13:15:20 2023

Wall Time:        0.38 seconds

                                                       Time (seconds)
Module                                       User      System        Wall        Calls

--------------------------------------------------------------------------------------

**************************************************************************************

Host: a002v96n001

Timers On : Fri Jun 23 13:15:20 2023
Timers Off: Fri Jun 23 13:15:20 2023

Wall Time:        0.39 seconds

                                                       Time (seconds)
Module                                       User      System        Wall        Calls

--------------------------------------------------------------------------------------

**************************************************************************************

Host: a002v96n001

Timers On : Fri Jun 23 13:15:20 2023
Timers Off: Fri Jun 23 13:15:20 2023

Wall Time:        0.38 seconds

                                                       Time (seconds)
Module                                       User      System        Wall        Calls

--------------------------------------------------------------------------------------

**************************************************************************************

Host: a002v96n001

Timers On : Fri Jun 23 13:15:20 2023
Timers Off: Fri Jun 23 13:15:20 2023

Wall Time:        0.38 seconds

                                                       Time (seconds)
Module                                       User      System        Wall        Calls

--------------------------------------------------------------------------------------

**************************************************************************************

Host: a002v96n001

Timers On : Fri Jun 23 13:15:20 2023
Timers Off: Fri Jun 23 13:15:20 2023

Wall Time:        0.38 seconds

                                                       Time (seconds)
Module                                       User      System        Wall        Calls

--------------------------------------------------------------------------------------

**************************************************************************************

Host: a002v96n001

Timers On : Fri Jun 23 13:15:20 2023
Timers Off: Fri Jun 23 13:15:20 2023

Wall Time:        0.39 seconds

                                                       Time (seconds)
Module                                       User      System        Wall        Calls

--------------------------------------------------------------------------------------

**************************************************************************************

Host: a002v96n001

Timers On : Fri Jun 23 13:15:20 2023
Timers Off: Fri Jun 23 13:15:20 2023

Wall Time:        0.38 seconds

                                                       Time (seconds)
Module                                       User      System        Wall        Calls

--------------------------------------------------------------------------------------

**************************************************************************************

Host: a002v96n001

Timers On : Sun Jul 16 14:29:12 2023
Timers Off: Sun Jul 16 14:29:12 2023

Wall Time:        0.44 seconds

                                                       Time (seconds)
Module                                       User      System        Wall        Calls

--------------------------------------------------------------------------------------

**************************************************************************************

Host: a002v96n001

Timers On : Sun Jul 16 14:29:12 2023
Timers Off: Sun Jul 16 14:29:12 2023

Wall Time:        0.39 seconds

                                                       Time (seconds)
Module                                       User      System        Wall        Calls

--------------------------------------------------------------------------------------

**************************************************************************************

Host: a002v96n001

Timers On : Sun Jul 16 14:29:12 2023
Timers Off: Sun Jul 16 14:29:12 2023

Wall Time:        0.39 seconds

                                                       Time (seconds)
Module                                       User      System        Wall        Calls

--------------------------------------------------------------------------------------

**************************************************************************************

Host: a002v96n001

Timers On : Sun Jul 16 14:29:12 2023
Timers Off: Sun Jul 16 14:29:12 2023

Wall Time:        0.41 seconds

                                                       Time (seconds)
Module                                       User      System        Wall        Calls

--------------------------------------------------------------------------------------

**************************************************************************************

Host: a002v96n001

Timers On : Sun Jul 16 14:29:12 2023
Timers Off: Sun Jul 16 14:29:12 2023

Wall Time:        0.38 seconds

                                                       Time (seconds)
Module                                       User      System        Wall        Calls

--------------------------------------------------------------------------------------

**************************************************************************************

Host: a002v96n001

Timers On : Sun Jul 16 14:29:12 2023
Timers Off: Sun Jul 16 14:29:12 2023

Wall Time:        0.38 seconds

                                                       Time (seconds)
Module                                       User      System        Wall        Calls

--------------------------------------------------------------------------------------

**************************************************************************************

Host: a002v96n001

Timers On : Sun Jul 16 14:29:12 2023
Timers Off: Sun Jul 16 14:29:12 2023

Wall Time:        0.46 seconds

                                                       Time (seconds)
Module                                       User      System        Wall        Calls

--------------------------------------------------------------------------------------

**************************************************************************************

Host: a002v96n001

Timers On : Sun Jul 16 14:29:12 2023
Timers Off: Sun Jul 16 14:29:12 2023

Wall Time:        0.46 seconds

                                                       Time (seconds)
Module                                       User      System        Wall        Calls

--------------------------------------------------------------------------------------

**************************************************************************************

Host: a002v96n001

Timers On : Sun Jul 16 14:29:12 2023
Timers Off: Sun Jul 16 14:29:12 2023

Wall Time:        0.47 seconds

                                                       Time (seconds)
Module                                       User      System        Wall        Calls

--------------------------------------------------------------------------------------

**************************************************************************************

Host: a002v96n001

Timers On : Sun Jul 16 14:29:12 2023
Timers Off: Sun Jul 16 14:29:12 2023

Wall Time:        0.38 seconds

                                                       Time (seconds)
Module                                       User      System        Wall        Calls

--------------------------------------------------------------------------------------

**************************************************************************************

Host: a002v96n001

Timers On : Sun Jul 16 14:29:12 2023
Timers Off: Sun Jul 16 14:29:12 2023

Wall Time:        0.38 seconds

                                                       Time (seconds)
Module                                       User      System        Wall        Calls

--------------------------------------------------------------------------------------

**************************************************************************************

Host: a002v96n001

Timers On : Sun Jul 16 14:29:12 2023
Timers Off: Sun Jul 16 14:29:12 2023

Wall Time:        0.45 seconds

                                                       Time (seconds)
Module                                       User      System        Wall        Calls

--------------------------------------------------------------------------------------

**************************************************************************************

Host: a002v96n001

Timers On : Sun Jul 16 14:29:12 2023
Timers Off: Sun Jul 16 14:29:12 2023

Wall Time:        0.38 seconds

                                                       Time (seconds)
Module                                       User      System        Wall        Calls

--------------------------------------------------------------------------------------

**************************************************************************************

Host: a002v96n001

Timers On : Sun Jul 16 14:29:12 2023
Timers Off: Sun Jul 16 14:29:12 2023

Wall Time:        0.38 seconds

                                                       Time (seconds)
Module                                       User      System        Wall        Calls

--------------------------------------------------------------------------------------

**************************************************************************************

Host: a002v96n001

Timers On : Sun Jul 16 14:29:12 2023
Timers Off: Sun Jul 16 14:29:12 2023

Wall Time:        0.38 seconds

                                                       Time (seconds)
Module                                       User      System        Wall        Calls

--------------------------------------------------------------------------------------

**************************************************************************************

Host: a002v96n001

Timers On : Sun Jul 16 14:29:12 2023
Timers Off: Sun Jul 16 14:29:12 2023

Wall Time:        0.38 seconds

                                                       Time (seconds)
Module                                       User      System        Wall        Calls

--------------------------------------------------------------------------------------

**************************************************************************************

Host: a002v96n001

Timers On : Sun Jul 16 14:29:12 2023
Timers Off: Sun Jul 16 14:29:12 2023

Wall Time:        0.37 seconds

                                                       Time (seconds)
Module                                       User      System        Wall        Calls

--------------------------------------------------------------------------------------

**************************************************************************************

Host: a002v96n001

Timers On : Sun Jul 16 14:29:12 2023
Timers Off: Sun Jul 16 14:29:12 2023

Wall Time:        0.38 seconds

                                                       Time (seconds)
Module                                       User      System        Wall        Calls

--------------------------------------------------------------------------------------

**************************************************************************************

Host: a002v96n001

Timers On : Sun Jul 16 14:29:12 2023
Timers Off: Sun Jul 16 14:29:12 2023

Wall Time:        0.38 seconds

                                                       Time (seconds)
Module                                       User      System        Wall        Calls

--------------------------------------------------------------------------------------

**************************************************************************************

Host: a002v96n001

Timers On : Sun Jul 16 14:29:12 2023
Timers Off: Sun Jul 16 14:29:12 2023

Wall Time:        0.45 seconds

                                                       Time (seconds)
Module                                       User      System        Wall        Calls

--------------------------------------------------------------------------------------

**************************************************************************************

Host: a002v96n001

Timers On : Sun Jul 16 14:29:12 2023
Timers Off: Sun Jul 16 14:29:12 2023

Wall Time:        0.38 seconds

                                                       Time (seconds)
Module                                       User      System        Wall        Calls

--------------------------------------------------------------------------------------

**************************************************************************************

Host: a002v96n001

Timers On : Sun Jul 16 14:29:12 2023
Timers Off: Sun Jul 16 14:29:12 2023

Wall Time:        0.38 seconds

                                                       Time (seconds)
Module                                       User      System        Wall        Calls

--------------------------------------------------------------------------------------

**************************************************************************************

Host: a002v96n001

Timers On : Sun Jul 16 14:29:12 2023
Timers Off: Sun Jul 16 14:29:12 2023

Wall Time:        0.43 seconds

                                                       Time (seconds)
Module                                       User      System        Wall        Calls

--------------------------------------------------------------------------------------

**************************************************************************************

Host: a002v96n001

Timers On : Sun Jul 16 14:29:12 2023
Timers Off: Sun Jul 16 14:29:12 2023

Wall Time:        0.40 seconds

                                                       Time (seconds)
Module                                       User      System        Wall        Calls

--------------------------------------------------------------------------------------

**************************************************************************************

Host: a002v96n001

Timers On : Sun Jul 16 14:56:10 2023
Timers Off: Sun Jul 16 14:56:10 2023

Wall Time:        0.39 seconds

                                                       Time (seconds)
Module                                       User      System        Wall        Calls

--------------------------------------------------------------------------------------

**************************************************************************************

Host: a002v96n001

Timers On : Sun Jul 16 14:56:10 2023
Timers Off: Sun Jul 16 14:56:10 2023

Wall Time:        0.43 seconds

                                                       Time (seconds)
Module                                       User      System        Wall        Calls

--------------------------------------------------------------------------------------

**************************************************************************************

Host: a002v96n001

Timers On : Sun Jul 16 14:56:10 2023
Timers Off: Sun Jul 16 14:56:10 2023

Wall Time:        0.39 seconds

                                                       Time (seconds)
Module                                       User      System        Wall        Calls

--------------------------------------------------------------------------------------

**************************************************************************************

Host: a002v96n001

Timers On : Sun Jul 16 14:56:10 2023
Timers Off: Sun Jul 16 14:56:10 2023

Wall Time:        0.39 seconds

                                                       Time (seconds)
Module                                       User      System        Wall        Calls

--------------------------------------------------------------------------------------

**************************************************************************************

Host: a002v96n001

Timers On : Sun Jul 16 14:56:10 2023
Timers Off: Sun Jul 16 14:56:10 2023

Wall Time:        0.38 seconds

                                                       Time (seconds)
Module                                       User      System        Wall        Calls

--------------------------------------------------------------------------------------

**************************************************************************************

Host: a002v96n001

Timers On : Sun Jul 16 14:56:10 2023
Timers Off: Sun Jul 16 14:56:10 2023

Wall Time:        0.40 seconds

                                                       Time (seconds)
Module                                       User      System        Wall        Calls

--------------------------------------------------------------------------------------

**************************************************************************************

Host: a002v96n001

Timers On : Sun Jul 16 14:56:10 2023
Timers Off: Sun Jul 16 14:56:10 2023

Wall Time:        0.39 seconds

                                                       Time (seconds)
Module                                       User      System        Wall        Calls

--------------------------------------------------------------------------------------

**************************************************************************************

Host: a002v96n001

Timers On : Sun Jul 16 14:56:10 2023
Timers Off: Sun Jul 16 14:56:10 2023

Wall Time:        0.38 seconds

                                                       Time (seconds)
Module                                       User      System        Wall        Calls

--------------------------------------------------------------------------------------

**************************************************************************************

Host: a002v96n001

Timers On : Sun Jul 16 14:56:10 2023
Timers Off: Sun Jul 16 14:56:10 2023

Wall Time:        0.39 seconds

                                                       Time (seconds)
Module                                       User      System        Wall        Calls

--------------------------------------------------------------------------------------

**************************************************************************************

Host: a002v96n001

Timers On : Sun Jul 16 14:56:10 2023
Timers Off: Sun Jul 16 14:56:10 2023

Wall Time:        0.37 seconds

                                                       Time (seconds)
Module                                       User      System        Wall        Calls

--------------------------------------------------------------------------------------

**************************************************************************************

Host: a002v96n001

Timers On : Sun Jul 16 14:56:10 2023
Timers Off: Sun Jul 16 14:56:10 2023

Wall Time:        0.48 seconds

                                                       Time (seconds)
Module                                       User      System        Wall        Calls

--------------------------------------------------------------------------------------

**************************************************************************************

Host: a002v96n001

Timers On : Sun Jul 16 14:56:10 2023
Timers Off: Sun Jul 16 14:56:10 2023

Wall Time:        0.39 seconds

                                                       Time (seconds)
Module                                       User      System        Wall        Calls

--------------------------------------------------------------------------------------

**************************************************************************************

Host: a002v96n001

Timers On : Sun Jul 16 14:56:10 2023
Timers Off: Sun Jul 16 14:56:10 2023

Wall Time:        0.37 seconds

                                                       Time (seconds)
Module                                       User      System        Wall        Calls

--------------------------------------------------------------------------------------

**************************************************************************************

Host: a002v96n001

Timers On : Sun Jul 16 14:56:10 2023
Timers Off: Sun Jul 16 14:56:10 2023

Wall Time:        0.39 seconds

                                                       Time (seconds)
Module                                       User      System        Wall        Calls

--------------------------------------------------------------------------------------

**************************************************************************************

Host: a002v96n001

Timers On : Sun Jul 16 14:56:10 2023
Timers Off: Sun Jul 16 14:56:10 2023

Wall Time:        0.47 seconds

                                                       Time (seconds)
Module                                       User      System        Wall        Calls

--------------------------------------------------------------------------------------

**************************************************************************************

Host: a002v96n001

Timers On : Sun Jul 16 14:56:10 2023
Timers Off: Sun Jul 16 14:56:10 2023

Wall Time:        0.37 seconds

                                                       Time (seconds)
Module                                       User      System        Wall        Calls

--------------------------------------------------------------------------------------

**************************************************************************************

Host: a002v96n001

Timers On : Sun Jul 16 14:56:10 2023
Timers Off: Sun Jul 16 14:56:10 2023

Wall Time:        0.40 seconds

                                                       Time (seconds)
Module                                       User      System        Wall        Calls

--------------------------------------------------------------------------------------

**************************************************************************************

Host: a002v96n001

Timers On : Sun Jul 16 14:56:10 2023
Timers Off: Sun Jul 16 14:56:10 2023

Wall Time:        0.45 seconds

                                                       Time (seconds)
Module                                       User      System        Wall        Calls

--------------------------------------------------------------------------------------

**************************************************************************************

Host: a002v96n001

Timers On : Sun Jul 16 14:56:10 2023

Timers Off: Sun Jul 16 14:56:10 2023
Host: a002v96n001


Wall Time:        0.37 seconds

                                                       Time (seconds)
Module                                       User      System        Wall        Calls

--------------------------------------------------------------------------------------
Timers On : Sun Jul 16 14:56:10 2023

**************************************************************************************
Timers Off: Sun Jul 16 14:56:10 2023

Wall Time:        0.40 seconds

                                                       Time (seconds)
Module                                       User      System        Wall        Calls

--------------------------------------------------------------------------------------

**************************************************************************************

Host: a002v96n001

Timers On : Sun Jul 16 14:56:10 2023
Timers Off: Sun Jul 16 14:56:10 2023

Wall Time:        0.45 seconds

                                                       Time (seconds)
Module                                       User      System        Wall        Calls

--------------------------------------------------------------------------------------

**************************************************************************************

Host: a002v96n001

Timers On : Sun Jul 16 14:56:10 2023
Timers Off: Sun Jul 16 14:56:10 2023

Wall Time:        0.42 seconds

                                                       Time (seconds)
Module                                       User      System        Wall        Calls

--------------------------------------------------------------------------------------

**************************************************************************************

Host: a002v96n001

Timers On : Sun Jul 16 14:56:10 2023
Timers Off: Sun Jul 16 14:56:10 2023

Wall Time:        0.39 seconds

                                                       Time (seconds)
Module                                       User      System        Wall        Calls

--------------------------------------------------------------------------------------

**************************************************************************************

Host: a002v96n001

Timers On : Sun Jul 16 14:56:10 2023
Timers Off: Sun Jul 16 14:56:10 2023

Wall Time:        0.45 seconds

                                                       Time (seconds)
Module                                       User      System        Wall        Calls

--------------------------------------------------------------------------------------

**************************************************************************************

Host: a002v96n001

Timers On : Sun Jul 16 14:19:06 2023
Timers Off: Sun Aug  6 20:13:02 2023

Wall Time:  1835636.57 seconds

                                                       Time (seconds)
Module                                       User      System        Wall        Calls
V: Grid                             :  84334.367u   1408.300s  14282.975w   6478 calls
build grid                          :  78871.600u   1142.100s  12365.940w   6478 calls
post-process grid                   :   5450.950u    265.633s   1914.821w   6478 calls
DFH: sparsity prep                  :   1466.467u     96.500s    939.686w   6478 calls
Libint2ERI::Libint2ERI              :  15103.100u    932.900s   2970.269w  84207 calls
DFH: initialize()                   : 560952.250u  26679.067s  95903.025w   6478 calls
Libint2ErfERI::Libint2ErfERI        :  12519.367u    823.417s   4923.391w  38863 calls
DFH: AO Construction                : 103225.933u   3992.700s  16108.137w  11689 calls
DFH: AO-Met. Contraction            : 199925.533u   4912.300s  31432.302w  23378 calls
DFH: wAO Construction               : 119977.283u   1104.367s  18184.588w  11689 calls
DFH: wAO Copy                       :  29440.267u   1541.067s   5180.621w  11689 calls
HF: Form core H                     :   2631.517u    195.900s    424.431w   6478 calls
HF: Form S/X                        :   1110.617u    101.250s    182.013w   6478 calls
HF: Guess                           :  10751.933u   1197.300s   1793.904w   6478 calls
SAD Guess                           :  10595.267u   1174.717s   1766.882w   6478 calls
HF: Form G                          : 1844854.983u 155438.667s 318660.956w  99349 calls
RV: Form V                          : 891001.617u  27974.000s 137912.276w  99349 calls
Properties                          : 271672.708p                         459119535 calls
Functional                          :  63382.737p                         459119535 calls
V_xc                                : 274883.617p                         431018194 calls
JK: D                               :    196.783u     16.317s     40.992w  99349 calls
JK: USO2AO                          :     44.517u      3.133s      4.103w  99349 calls
JK: JK                              : 952882.000u 127386.733s 180586.593w  99349 calls
DFH: compute_JK()                   : 418281.633u  47688.283s  71738.455w  99349 calls
DFH: Grabbing AOs                   :      2.683u      0.167s      0.403w  99349 calls
DFH: compute_J                      :  28087.950u   6614.950s   5230.726w  99349 calls
DFH: compute_K                      : 272720.283u   8590.767s  42310.642w  99349 calls
DFH: compute_wK()                   : 533985.717u  79646.167s 108754.046w  99349 calls
JK: AO2USO                          :      2.067u      0.117s      0.262w  99349 calls
HF: Form F                          :    293.333u     29.367s     51.703w  99349 calls
HF: Form D                          :    168.083u      9.650s     33.313w  99349 calls
HF: DIIS                            :  16403.500u   2453.350s   2831.180w  92871 calls
HF: Form C                          :  13324.050u    871.150s   2132.349w  92871 calls
Grad: V T Perturb                   :   3737.667u    188.233s    589.738w   6477 calls
Grad: S                             :    509.783u     27.883s     80.787w   6477 calls
Grad: JK                            : 730845.467u  55194.517s 141599.184w   6477 calls
JKGrad: Amn                         : 115115.083u  13056.150s  24886.760w   6477 calls
JKGrad: Awmn                        : 138217.567u  13296.333s  30837.054w   6477 calls
JKGrad: AB                          :  49712.783u   3918.133s   8170.692w   6477 calls
JKGrad: UV                          :  19467.133u   2257.200s   3270.070w   6477 calls
JKGrad: ABx                         :   6300.550u    500.000s   1020.202w   6477 calls
JKGrad: Amnx                        : 401712.367u  21958.533s  73247.060w   6477 calls
Grad: XC                            : 140647.850u   1920.417s  21498.176w   6477 calls
V_xc gradient                       :  24062.654p                         28101341 calls

--------------------------------------------------------------------------------------
V: Grid                             :  84334.367u   1408.300s  14282.975w   6478 calls
| build grid                        :  78871.600u   1142.100s  12365.940w   6478 calls
| post-process grid                 :   5450.950u    265.633s   1914.821w   6478 calls
DFH: sparsity prep                  :   1466.467u     96.500s    939.686w   6478 calls
| Libint2ERI::Libint2ERI            :   1018.167u     80.583s    660.720w   6478 calls
DFH: initialize()                   : 560952.250u  26679.067s  95903.025w   6478 calls
| Libint2ERI::Libint2ERI            :   3752.900u    152.067s    617.577w  32390 calls
| Libint2ErfERI::Libint2ErfERI      :   3434.700u    122.333s    624.103w   6478 calls
| DFH: AO Construction              : 103225.933u   3992.700s  16108.137w  11689 calls
| DFH: AO-Met. Contraction          : 199925.533u   4912.300s  31432.302w  23378 calls
| DFH: wAO Construction             : 119977.283u   1104.367s  18184.588w  11689 calls
| DFH: wAO Copy                     :  29440.267u   1541.067s   5180.621w  11689 calls
HF: Form core H                     :   2631.517u    195.900s    424.431w   6478 calls
HF: Form S/X                        :   1110.617u    101.250s    182.013w   6478 calls
HF: Guess                           :  10751.933u   1197.300s   1793.904w   6478 calls
| SAD Guess                         :  10595.267u   1174.717s   1766.882w   6478 calls
HF: Form G                          : 1844854.983u 155438.667s 318660.956w  99349 calls
| RV: Form V                        : 891001.617u  27974.000s 137912.276w  99349 calls
| | Properties                      : 213066.272p                         431018194 calls
| | Functional                      :  60974.352p                         431018194 calls
| | V_xc                            : 274883.617p                         431018194 calls
| JK: D                             :    196.783u     16.317s     40.992w  99349 calls
| JK: USO2AO                        :     44.517u      3.133s      4.103w  99349 calls
| JK: JK                            : 952882.000u 127386.733s 180586.593w  99349 calls
| | DFH: compute_JK()               : 418281.633u  47688.283s  71738.455w  99349 calls
| | | DFH: Grabbing AOs             :      2.683u      0.167s      0.403w  99349 calls
| | | DFH: compute_J                :  28087.950u   6614.950s   5230.726w  99349 calls
| | | DFH: compute_K                : 272720.283u   8590.767s  42310.642w  99349 calls
| | DFH: compute_wK()               : 533985.717u  79646.167s 108754.046w  99349 calls
| JK: AO2USO                        :      2.067u      0.117s      0.262w  99349 calls
HF: Form F                          :    293.333u     29.367s     51.703w  99349 calls
HF: Form D                          :    168.083u      9.650s     33.313w  99349 calls
HF: DIIS                            :  16403.500u   2453.350s   2831.180w  92871 calls
HF: Form C                          :  13324.050u    871.150s   2132.349w  92871 calls
Grad: V T Perturb                   :   3737.667u    188.233s    589.738w   6477 calls
Grad: S                             :    509.783u     27.883s     80.787w   6477 calls
Grad: JK                            : 730845.467u  55194.517s 141599.184w   6477 calls
| JKGrad: Amn                       : 115115.083u  13056.150s  24886.760w   6477 calls
| | Libint2ERI::Libint2ERI          :   5562.850u    393.017s    898.535w   6477 calls
| JKGrad: Awmn                      : 138217.567u  13296.333s  30837.054w   6477 calls
| | Libint2ErfERI::Libint2ErfERI    :   5630.550u    511.433s   3497.629w  25908 calls
| JKGrad: AB                        :  49712.783u   3918.133s   8170.692w   6477 calls
| | Libint2ERI::Libint2ERI          :    111.317u     21.283s     50.138w  25908 calls
| JKGrad: UV                        :  19467.133u   2257.200s   3270.070w   6477 calls
| JKGrad: ABx                       :   6300.550u    500.000s   1020.202w   6477 calls
| | Libint2ERI::Libint2ERI          :     97.583u     13.967s     16.838w   6477 calls
| JKGrad: Amnx                      : 401712.367u  21958.533s  73247.060w   6477 calls
| | Libint2ERI::Libint2ERI          :   4560.283u    271.983s    726.460w   6477 calls
| | Libint2ErfERI::Libint2ErfERI    :   3454.117u    189.650s    801.660w   6477 calls
Grad: XC                            : 140647.850u   1920.417s  21498.176w   6477 calls
| Properties                        :  58606.436p                         28101341 calls
| Functional                        :   2408.385p                         28101341 calls
| V_xc gradient                     :  24062.654p                         28101341 calls

**************************************************************************************

Host: a002v96n001

Timers On : Sun Jul 16 14:19:06 2023
Timers Off: Sun Aug  6 20:27:32 2023

Wall Time:  1836506.37 seconds

                                                       Time (seconds)
Module                                       User      System        Wall        Calls
V: Grid                             :  77780.800u   1517.367s  13436.426w   6485 calls
build grid                          :  71588.150u   1229.617s  11309.798w   6485 calls
post-process grid                   :   6181.500u    287.150s   2124.461w   6485 calls
DFH: sparsity prep                  :   1347.733u     88.583s    863.529w   6485 calls
Libint2ERI::Libint2ERI              :  15352.950u    927.183s   2973.864w  84298 calls
DFH: initialize()                   : 523098.750u  24047.400s  90036.795w   6485 calls
Libint2ErfERI::Libint2ErfERI        :  12494.233u    823.683s   5228.015w  38905 calls
DFH: AO Construction                :  92377.500u   3679.667s  14430.398w   9678 calls
DFH: AO-Met. Contraction            : 185173.567u   4175.600s  29654.720w  19356 calls
DFH: wAO Construction               : 116495.100u    882.433s  17627.047w   9678 calls
DFH: wAO Copy                       :  26944.617u   1392.633s   5060.414w   9678 calls
HF: Form core H                     :   2379.067u    186.317s    385.167w   6485 calls
HF: Form S/X                        :   1022.667u     97.300s    168.035w   6485 calls
HF: Guess                           :  11559.900u   1373.000s   1941.352w   6485 calls
SAD Guess                           :  11411.100u   1352.183s   1915.908w   6485 calls
HF: Form G                          : 1697844.067u 147224.433s 294797.925w 100039 calls
RV: Form V                          : 793251.317u  25051.150s 122803.813w 100039 calls
Properties                          : 234196.618p                         441199073 calls
Functional                          :  61985.723p                         441199073 calls
V_xc                                : 257024.695p                         414354377 calls
JK: D                               :    185.667u     14.100s     38.770w 100039 calls
JK: USO2AO                          :     41.233u      3.017s      3.847w 100039 calls
JK: JK                              : 903677.567u 122103.417s 171841.149w 100039 calls
DFH: compute_JK()                   : 396339.217u  46567.367s  68253.529w 100039 calls
DFH: Grabbing AOs                   :      2.767u      0.100s      0.393w 100039 calls
DFH: compute_J                      :  26528.383u   6653.183s   5003.045w 100039 calls
DFH: compute_K                      : 257513.117u   8117.667s  39985.811w 100039 calls
DFH: compute_wK()                   : 506762.650u  75489.483s 103499.503w 100039 calls
JK: AO2USO                          :      1.783u      0.133s      0.254w 100039 calls
HF: Form F                          :    272.283u     27.233s     47.978w 100039 calls
HF: Form D                          :    155.017u      8.867s     31.399w 100039 calls
HF: DIIS                            :  16583.900u   2415.583s   2852.586w  93554 calls
HF: Form C                          :  12628.250u    837.700s   2021.489w  93554 calls
Grad: V T Perturb                   :   3635.633u    180.983s    573.306w   6484 calls
Grad: S                             :    499.717u     27.267s     79.358w   6484 calls
Grad: JK                            : 731470.267u  52290.033s 141153.955w   6484 calls
JKGrad: Amn                         : 110301.667u  12033.567s  23904.705w   6484 calls
JKGrad: Awmn                        : 138030.517u  12346.550s  30727.043w   6484 calls
JKGrad: AB                          :  50067.150u   4250.333s   8296.867w   6484 calls
JKGrad: UV                          :  19923.783u   2277.783s   3352.000w   6484 calls
JKGrad: ABx                         :   6284.867u    494.933s   1017.319w   6484 calls
JKGrad: Amnx                        : 406550.583u  20668.083s  73672.847w   6484 calls
Grad: XC                            : 150203.383u   1570.400s  22894.851w   6484 calls
V_xc gradient                       :  25996.069p                         26844696 calls

--------------------------------------------------------------------------------------
V: Grid                             :  77780.800u   1517.367s  13436.426w   6485 calls
| build grid                        :  71588.150u   1229.617s  11309.798w   6485 calls
| post-process grid                 :   6181.500u    287.150s   2124.461w   6485 calls
DFH: sparsity prep                  :   1347.733u     88.583s    863.529w   6485 calls
| Libint2ERI::Libint2ERI            :    928.533u     74.417s    603.114w   6485 calls
DFH: initialize()                   : 523098.750u  24047.400s  90036.795w   6485 calls
| Libint2ERI::Libint2ERI            :   3711.400u    154.567s    610.962w  32425 calls
| Libint2ErfERI::Libint2ErfERI      :   3367.800u    123.333s    655.072w   6485 calls
| DFH: AO Construction              :  92377.500u   3679.667s  14430.398w   9678 calls
| DFH: AO-Met. Contraction          : 185173.567u   4175.600s  29654.720w  19356 calls
| DFH: wAO Construction             : 116495.100u    882.433s  17627.047w   9678 calls
| DFH: wAO Copy                     :  26944.617u   1392.633s   5060.414w   9678 calls
HF: Form core H                     :   2379.067u    186.317s    385.167w   6485 calls
HF: Form S/X                        :   1022.667u     97.300s    168.035w   6485 calls
HF: Guess                           :  11559.900u   1373.000s   1941.352w   6485 calls
| SAD Guess                         :  11411.100u   1352.183s   1915.908w   6485 calls
HF: Form G                          : 1697844.067u 147224.433s 294797.925w 100039 calls
| RV: Form V                        : 793251.317u  25051.150s 122803.813w 100039 calls
| | Properties                      : 172169.837p                         414354377 calls
| | Functional                      :  59423.901p                         414354377 calls
| | V_xc                            : 257024.695p                         414354377 calls
| JK: D                             :    185.667u     14.100s     38.770w 100039 calls
| JK: USO2AO                        :     41.233u      3.017s      3.847w 100039 calls
| JK: JK                            : 903677.567u 122103.417s 171841.149w 100039 calls
| | DFH: compute_JK()               : 396339.217u  46567.367s  68253.529w 100039 calls
| | | DFH: Grabbing AOs             :      2.767u      0.100s      0.393w 100039 calls
| | | DFH: compute_J                :  26528.383u   6653.183s   5003.045w 100039 calls
| | | DFH: compute_K                : 257513.117u   8117.667s  39985.811w 100039 calls
| | DFH: compute_wK()               : 506762.650u  75489.483s 103499.503w 100039 calls
| JK: AO2USO                        :      1.783u      0.133s      0.254w 100039 calls
HF: Form F                          :    272.283u     27.233s     47.978w 100039 calls
HF: Form D                          :    155.017u      8.867s     31.399w 100039 calls
HF: DIIS                            :  16583.900u   2415.583s   2852.586w  93554 calls
HF: Form C                          :  12628.250u    837.700s   2021.489w  93554 calls
Grad: V T Perturb                   :   3635.633u    180.983s    573.306w   6484 calls
Grad: S                             :    499.717u     27.267s     79.358w   6484 calls
Grad: JK                            : 731470.267u  52290.033s 141153.955w   6484 calls
| JKGrad: Amn                       : 110301.667u  12033.567s  23904.705w   6484 calls
| | Libint2ERI::Libint2ERI          :   5743.733u    390.867s    931.393w   6484 calls
| JKGrad: Awmn                      : 138030.517u  12346.550s  30727.043w   6484 calls
| | Libint2ErfERI::Libint2ErfERI    :   5871.650u    525.883s   3719.913w  25936 calls
| JKGrad: AB                        :  50067.150u   4250.333s   8296.867w   6484 calls
| | Libint2ERI::Libint2ERI          :    102.400u     20.600s     53.304w  25936 calls
| JKGrad: UV                        :  19923.783u   2277.783s   3352.000w   6484 calls
| JKGrad: ABx                       :   6284.867u    494.933s   1017.319w   6484 calls
| | Libint2ERI::Libint2ERI          :     97.217u     12.967s     16.501w   6484 calls
| JKGrad: Amnx                      : 406550.583u  20668.083s  73672.847w   6484 calls
| | Libint2ERI::Libint2ERI          :   4769.667u    273.767s    758.590w   6484 calls
| | Libint2ErfERI::Libint2ErfERI    :   3254.783u    174.467s    853.030w   6484 calls
Grad: XC                            : 150203.383u   1570.400s  22894.851w   6484 calls
| Properties                        :  62026.782p                         26844696 calls
| Functional                        :   2561.822p                         26844696 calls
| V_xc gradient                     :  25996.069p                         26844696 calls

**************************************************************************************

Host: a002v96n001

Timers On : Sun Jul 16 14:19:06 2023
Timers Off: Mon Aug  7 00:17:42 2023

Wall Time:  1850316.64 seconds

                                                       Time (seconds)
Module                                       User      System        Wall        Calls
V: Grid                             :  83344.633u   1507.700s  14266.071w   6605 calls
build grid                          :  77323.700u   1217.633s  12152.388w   6605 calls
post-process grid                   :   6008.733u    289.400s   2111.407w   6605 calls
DFH: sparsity prep                  :   1446.000u     97.450s    928.617w   6605 calls
Libint2ERI::Libint2ERI              :  15556.017u    963.200s   3052.458w  85858 calls
DFH: initialize()                   : 549582.783u  26066.317s  94518.503w   6605 calls
Libint2ErfERI::Libint2ErfERI        :  12156.683u    823.517s   5153.079w  39625 calls
DFH: AO Construction                :  98652.433u   3894.200s  15406.036w  10905 calls
DFH: AO-Met. Contraction            : 197591.567u   4818.217s  31413.784w  21810 calls
DFH: wAO Construction               : 117738.317u   1049.517s  17842.389w  10905 calls
DFH: wAO Copy                       :  28398.450u   1485.583s   5209.320w  10905 calls
HF: Form core H                     :   2540.533u    193.617s    410.337w   6605 calls
HF: Form S/X                        :   1086.600u    100.933s    178.212w   6605 calls
HF: Guess                           :  11084.717u   1298.967s   1858.966w   6605 calls
SAD Guess                           :  10927.733u   1277.317s   1832.447w   6605 calls
HF: Form G                          : 1806962.100u 154327.017s 314088.321w 101535 calls
RV: Form V                          : 862900.183u  27733.383s 133659.123w 101535 calls
Properties                          : 260703.132p                         460486177 calls
Functional                          :  64056.838p                         460486177 calls
V_xc                                : 272378.723p                         432379206 calls
JK: D                               :    198.183u     16.550s     41.073w 101535 calls
JK: USO2AO                          :     43.900u      3.600s      4.076w 101535 calls
JK: JK                              : 943094.400u 126516.267s 180267.038w 101535 calls
DFH: compute_JK()                   : 413996.217u  47813.300s  71619.574w 101535 calls
DFH: Grabbing AOs                   :      2.417u      0.217s      0.421w 101535 calls
DFH: compute_J                      :  27951.117u   6573.083s   5207.696w 101535 calls
DFH: compute_K                      : 271945.667u   8596.650s  42210.096w 101535 calls
DFH: compute_wK()                   : 528482.400u  78652.333s 108553.720w 101535 calls
JK: AO2USO                          :      1.833u      0.050s      0.277w 101535 calls
HF: Form F                          :    288.600u     27.750s     51.329w 101535 calls
HF: Form D                          :    167.867u     10.550s     33.410w 101535 calls
HF: DIIS                            :  16540.733u   2461.017s   2853.987w  94930 calls
HF: Form C                          :  13305.917u    879.200s   2129.973w  94930 calls
Grad: V T Perturb                   :   3799.117u    193.233s    599.612w   6604 calls
Grad: S                             :    517.583u     27.800s     82.162w   6604 calls
Grad: JK                            : 754205.417u  56223.467s 146237.889w   6604 calls
JKGrad: Amn                         : 115199.767u  12759.517s  25059.212w   6604 calls
JKGrad: Awmn                        : 139189.317u  13269.083s  31280.405w   6604 calls
JKGrad: AB                          :  51558.967u   4237.200s   8517.946w   6604 calls
JKGrad: UV                          :  20395.550u   2353.017s   3442.897w   6604 calls
JKGrad: ABx                         :   6536.267u    547.800s   1063.183w   6604 calls
JKGrad: Amnx                        : 421069.600u  22842.383s  76696.873w   6604 calls
Grad: XC                            : 151133.233u   1962.317s  23091.791w   6604 calls
V_xc gradient                       :  26183.009p                         28106971 calls

--------------------------------------------------------------------------------------
V: Grid                             :  83344.633u   1507.700s  14266.071w   6605 calls
| build grid                        :  77323.700u   1217.633s  12152.388w   6605 calls
| post-process grid                 :   6008.733u    289.400s   2111.407w   6605 calls
DFH: sparsity prep                  :   1446.000u     97.450s    928.617w   6605 calls
| Libint2ERI::Libint2ERI            :    998.700u     82.150s    649.764w   6605 calls
DFH: initialize()                   : 549582.783u  26066.317s  94518.503w   6605 calls
| Libint2ERI::Libint2ERI            :   3851.167u    159.600s    635.336w  33025 calls
| Libint2ErfERI::Libint2ErfERI      :   3247.950u    119.783s    655.421w   6605 calls
| DFH: AO Construction              :  98652.433u   3894.200s  15406.036w  10905 calls
| DFH: AO-Met. Contraction          : 197591.567u   4818.217s  31413.784w  21810 calls
| DFH: wAO Construction             : 117738.317u   1049.517s  17842.389w  10905 calls
| DFH: wAO Copy                     :  28398.450u   1485.583s   5209.320w  10905 calls
HF: Form core H                     :   2540.533u    193.617s    410.337w   6605 calls
HF: Form S/X                        :   1086.600u    100.933s    178.212w   6605 calls
HF: Guess                           :  11084.717u   1298.967s   1858.966w   6605 calls
| SAD Guess                         :  10927.733u   1277.317s   1832.447w   6605 calls
HF: Form G                          : 1806962.100u 154327.017s 314088.321w 101535 calls
| RV: Form V                        : 862900.183u  27733.383s 133659.123w 101535 calls
| | Properties                      : 198055.018p                         432379206 calls
| | Functional                      :  61495.955p                         432379206 calls
| | V_xc                            : 272378.723p                         432379206 calls
| JK: D                             :    198.183u     16.550s     41.073w 101535 calls
| JK: USO2AO                        :     43.900u      3.600s      4.076w 101535 calls
| JK: JK                            : 943094.400u 126516.267s 180267.038w 101535 calls
| | DFH: compute_JK()               : 413996.217u  47813.300s  71619.574w 101535 calls
| | | DFH: Grabbing AOs             :      2.417u      0.217s      0.421w 101535 calls
| | | DFH: compute_J                :  27951.117u   6573.083s   5207.696w 101535 calls
| | | DFH: compute_K                : 271945.667u   8596.650s  42210.096w 101535 calls
| | DFH: compute_wK()               : 528482.400u  78652.333s 108553.720w 101535 calls
| JK: AO2USO                        :      1.833u      0.050s      0.277w 101535 calls
HF: Form F                          :    288.600u     27.750s     51.329w 101535 calls
HF: Form D                          :    167.867u     10.550s     33.410w 101535 calls
HF: DIIS                            :  16540.733u   2461.017s   2853.987w  94930 calls
HF: Form C                          :  13305.917u    879.200s   2129.973w  94930 calls
Grad: V T Perturb                   :   3799.117u    193.233s    599.612w   6604 calls
Grad: S                             :    517.583u     27.800s     82.162w   6604 calls
Grad: JK                            : 754205.417u  56223.467s 146237.889w   6604 calls
| JKGrad: Amn                       : 115199.767u  12759.517s  25059.212w   6604 calls
| | Libint2ERI::Libint2ERI          :   5742.000u    407.250s    936.415w   6604 calls
| JKGrad: Awmn                      : 139189.317u  13269.083s  31280.405w   6604 calls
| | Libint2ErfERI::Libint2ErfERI    :   5740.033u    527.783s   3657.407w  26416 calls
| JKGrad: AB                        :  51558.967u   4237.200s   8517.946w   6604 calls
| | Libint2ERI::Libint2ERI          :     94.233u     20.617s     52.157w  26416 calls
| JKGrad: UV                        :  20395.550u   2353.017s   3442.897w   6604 calls
| JKGrad: ABx                       :   6536.267u    547.800s   1063.183w   6604 calls
| | Libint2ERI::Libint2ERI          :     98.183u     13.283s     16.837w   6604 calls
| JKGrad: Amnx                      : 421069.600u  22842.383s  76696.873w   6604 calls
| | Libint2ERI::Libint2ERI          :   4771.733u    280.300s    761.949w   6604 calls
| | Libint2ErfERI::Libint2ErfERI    :   3168.700u    175.950s    840.251w   6604 calls
Grad: XC                            : 151133.233u   1962.317s  23091.791w   6604 calls
| Properties                        :  62648.114p                         28106971 calls
| Functional                        :   2560.883p                         28106971 calls
| V_xc gradient                     :  26183.009p                         28106971 calls

**************************************************************************************

Host: a002v96n001

Timers On : Sun Jul 16 14:19:06 2023
Timers Off: Mon Aug  7 00:28:34 2023

Wall Time:  1850968.78 seconds

                                                       Time (seconds)
Module                                       User      System        Wall        Calls
V: Grid                             :  46079.583u    810.467s   8585.067w   6607 calls
build grid                          :  39660.767u    510.817s   6344.018w   6607 calls
post-process grid                   :   6409.133u    299.217s   2239.254w   6607 calls
DFH: sparsity prep                  :   1172.267u     83.050s    754.090w   6607 calls
Libint2ERI::Libint2ERI              :  15859.700u    944.433s   2994.867w  85884 calls
DFH: initialize()                   : 304169.383u  14353.700s  52794.102w   6607 calls
Libint2ErfERI::Libint2ErfERI        :  12765.933u    822.833s   5573.146w  39637 calls
DFH: AO Construction                :  42134.917u   2028.700s   6658.066w   6747 calls
DFH: AO-Met. Contraction            :  99394.383u   2120.050s  15994.524w  13494 calls
DFH: wAO Construction               :  86352.133u    462.150s  13040.253w   6747 calls
DFH: wAO Copy                       :  21803.117u    891.783s   4166.220w   6747 calls
HF: Form core H                     :   1614.567u    127.217s    261.591w   6607 calls
HF: Form S/X                        :    773.800u     69.200s    126.533w   6607 calls
HF: Guess                           :  14424.817u   2135.667s   2486.686w   6607 calls
SAD Guess                           :  14293.183u   2119.617s   2464.349w   6607 calls
HF: Form G                          : 1212784.083u 104244.367s 205642.140w 102000 calls
RV: Form V                          : 568847.683u  15257.950s  87656.515w 102000 calls
Properties                          : 169462.105p                         351887882 calls
Functional                          :  50458.555p                         351887882 calls
V_xc                                : 184114.106p                         330502973 calls
JK: D                               :    141.750u      9.683s     30.527w 102000 calls
JK: USO2AO                          :     30.617u      2.317s      2.837w 102000 calls
JK: JK                              : 643218.683u  88935.650s 117864.241w 102000 calls
DFH: compute_JK()                   : 274297.633u  33343.633s  46400.603w 102000 calls
DFH: Grabbing AOs                   :      3.967u      0.300s      0.421w 102000 calls
DFH: compute_J                      :  18836.633u   4455.250s   3500.496w 102000 calls
DFH: compute_K                      : 167459.850u   5088.300s  26028.631w 102000 calls
DFH: compute_wK()                   : 368485.050u  55559.300s  71398.922w 102000 calls
JK: AO2USO                          :      1.617u      0.100s      0.249w 102000 calls
HF: Form F                          :    206.717u     18.267s     36.242w 102000 calls
HF: Form D                          :    109.383u      6.917s     23.616w 102000 calls
HF: DIIS                            :  14387.100u   2018.517s   2462.669w  95393 calls
HF: Form C                          :   9190.917u    633.600s   1476.078w  95393 calls
Grad: V T Perturb                   :   2623.617u    134.317s    415.121w   6606 calls
Grad: S                             :    414.250u     23.350s     66.046w   6606 calls
Grad: JK                            : 676984.967u  44247.717s 128327.124w   6606 calls
JKGrad: Amn                         :  88063.183u   9516.767s  18940.806w   6606 calls
JKGrad: Awmn                        : 107958.917u   9891.967s  24942.281w   6606 calls
JKGrad: AB                          :  47283.800u   4828.950s   7932.843w   6606 calls
JKGrad: UV                          :  19361.583u   2264.467s   3265.613w   6606 calls
JKGrad: ABx                         :   6592.200u    496.567s   1064.031w   6606 calls
JKGrad: Amnx                        : 407387.883u  16972.283s  71962.586w   6606 calls
Grad: XC                            : 141182.767u   1275.967s  21499.388w   6606 calls
V_xc gradient                       :  29627.210p                         21384909 calls

--------------------------------------------------------------------------------------
V: Grid                             :  46079.583u    810.467s   8585.067w   6607 calls
| build grid                        :  39660.767u    510.817s   6344.018w   6607 calls
| post-process grid                 :   6409.133u    299.217s   2239.254w   6607 calls
DFH: sparsity prep                  :   1172.267u     83.050s    754.090w   6607 calls
| Libint2ERI::Libint2ERI            :    797.850u     68.833s    520.452w   6607 calls
DFH: initialize()                   : 304169.383u  14353.700s  52794.102w   6607 calls
| Libint2ERI::Libint2ERI            :   2955.317u    141.000s    489.583w  33035 calls
| Libint2ErfERI::Libint2ErfERI      :   2971.283u    124.933s    489.429w   6607 calls
| DFH: AO Construction              :  42134.917u   2028.700s   6658.066w   6747 calls
| DFH: AO-Met. Contraction          :  99394.383u   2120.050s  15994.524w  13494 calls
| DFH: wAO Construction             :  86352.133u    462.150s  13040.253w   6747 calls
| DFH: wAO Copy                     :  21803.117u    891.783s   4166.220w   6747 calls
HF: Form core H                     :   1614.567u    127.217s    261.591w   6607 calls
HF: Form S/X                        :    773.800u     69.200s    126.533w   6607 calls
HF: Guess                           :  14424.817u   2135.667s   2486.686w   6607 calls
| SAD Guess                         :  14293.183u   2119.617s   2464.349w   6607 calls
HF: Form G                          : 1212784.083u 104244.367s 205642.140w 102000 calls
| RV: Form V                        : 568847.683u  15257.950s  87656.515w 102000 calls
| | Properties                      : 117041.208p                         330502973 calls
| | Functional                      :  47500.844p                         330502973 calls
| | V_xc                            : 184114.106p                         330502973 calls
| JK: D                             :    141.750u      9.683s     30.527w 102000 calls
| JK: USO2AO                        :     30.617u      2.317s      2.837w 102000 calls
| JK: JK                            : 643218.683u  88935.650s 117864.241w 102000 calls
| | DFH: compute_JK()               : 274297.633u  33343.633s  46400.603w 102000 calls
| | | DFH: Grabbing AOs             :      3.967u      0.300s      0.421w 102000 calls
| | | DFH: compute_J                :  18836.633u   4455.250s   3500.496w 102000 calls
| | | DFH: compute_K                : 167459.850u   5088.300s  26028.631w 102000 calls
| | DFH: compute_wK()               : 368485.050u  55559.300s  71398.922w 102000 calls
| JK: AO2USO                        :      1.617u      0.100s      0.249w 102000 calls
HF: Form F                          :    206.717u     18.267s     36.242w 102000 calls
HF: Form D                          :    109.383u      6.917s     23.616w 102000 calls
HF: DIIS                            :  14387.100u   2018.517s   2462.669w  95393 calls
HF: Form C                          :   9190.917u    633.600s   1476.078w  95393 calls
Grad: V T Perturb                   :   2623.617u    134.317s    415.121w   6606 calls
Grad: S                             :    414.250u     23.350s     66.046w   6606 calls
Grad: JK                            : 676984.967u  44247.717s 128327.124w   6606 calls
| JKGrad: Amn                       :  88063.183u   9516.767s  18940.806w   6606 calls
| | Libint2ERI::Libint2ERI          :   6140.100u    381.400s    998.408w   6606 calls
| JKGrad: Awmn                      : 107958.917u   9891.967s  24942.281w   6606 calls
| | Libint2ErfERI::Libint2ErfERI    :   6860.167u    548.633s   4091.221w  26424 calls
| JKGrad: AB                        :  47283.800u   4828.950s   7932.843w   6606 calls
| | Libint2ERI::Libint2ERI          :    139.467u     28.083s     56.698w  26424 calls
| JKGrad: UV                        :  19361.583u   2264.467s   3265.613w   6606 calls
| JKGrad: ABx                       :   6592.200u    496.567s   1064.031w   6606 calls
| | Libint2ERI::Libint2ERI          :     98.650u     13.717s     16.946w   6606 calls
| JKGrad: Amnx                      : 407387.883u  16972.283s  71962.586w   6606 calls
| | Libint2ERI::Libint2ERI          :   5728.317u    311.400s    912.779w   6606 calls
| | Libint2ErfERI::Libint2ErfERI    :   2934.483u    149.267s    992.495w   6606 calls
Grad: XC                            : 141182.767u   1275.967s  21499.388w   6606 calls
| Properties                        :  52420.898p                         21384909 calls
| Functional                        :   2957.711p                         21384909 calls
| V_xc gradient                     :  29627.210p                         21384909 calls

**************************************************************************************

Host: a002v96n001

Timers On : Sun Jul 16 14:19:06 2023
Timers Off: Mon Aug  7 00:43:42 2023

Wall Time:  1851876.67 seconds

[...]

Host: a002v96n001

Timers On : Sun Jul 16 14:19:06 2023
Timers Off: Mon Aug  7 04:30:36 2023

Wall Time:  1865490.04 seconds

                                                       Time (seconds)
Module                                       User      System        Wall        Calls
V: Grid                             :  85317.833u   1617.067s  14609.152w   6742 calls
build grid                          :  78610.067u   1309.000s  12392.893w   6742 calls
post-process grid                   :   6695.383u    307.467s   2213.946w   6742 calls
DFH: sparsity prep                  :   1466.283u     96.367s    939.771w   6742 calls
Libint2ERI::Libint2ERI              :  16129.367u    994.467s   3139.322w  87639 calls
DFH: initialize()                   : 556395.200u  26361.267s  95460.640w   6742 calls
Libint2ErfERI::Libint2ErfERI        :  13588.100u    917.100s   5421.553w  40447 calls
DFH: AO Construction                :  98967.700u   3955.667s  15461.830w  10890 calls
DFH: AO-Met. Contraction            : 197354.233u   4844.917s  31365.164w  21780 calls
DFH: wAO Construction               : 121146.933u   1103.650s  18360.110w  10890 calls
DFH: wAO Copy                       :  29247.750u   1614.167s   5313.527w  10890 calls
HF: Form core H                     :   2560.317u    193.800s    413.403w   6742 calls
HF: Form S/X                        :   1089.717u    100.950s    178.786w   6742 calls
HF: Guess                           :  11635.350u   1309.217s   1943.058w   6742 calls
SAD Guess                           :  11479.600u   1287.267s   1916.173w   6742 calls
HF: Form G                          : 1833495.483u 155347.883s 315834.592w 103572 calls
RV: Form V                          : 869097.333u  27538.733s 134554.910w 103572 calls
Properties                          : 266200.975p                         469080816 calls
Functional                          :  64917.490p                         469080816 calls
V_xc                                : 273618.887p                         440430503 calls
JK: D                               :    196.350u     15.050s     41.158w 103572 calls
JK: USO2AO                          :     44.900u      3.450s      4.125w 103572 calls
JK: JK                              : 963429.150u 127734.333s 181117.268w 103572 calls
DFH: compute_JK()                   : 421343.750u  48416.550s  71907.260w 103572 calls
DFH: Grabbing AOs                   :      3.433u      0.200s      0.424w 103572 calls
DFH: compute_J                      :  28160.683u   6603.300s   5234.479w 103572 calls
DFH: compute_K                      : 272258.117u   8596.933s  42257.784w 103572 calls
DFH: compute_wK()                   : 541473.067u  79270.567s 109116.303w 103572 calls
JK: AO2USO                          :      1.767u      0.033s      0.271w 103572 calls
HF: Form F                          :    289.500u     26.517s     50.807w 103572 calls
HF: Form D                          :    169.533u     10.400s     33.342w 103572 calls
HF: DIIS                            :  17276.850u   2518.767s   2971.778w  96830 calls
HF: Form C                          :  13401.250u    877.867s   2144.208w  96830 calls
Grad: V T Perturb                   :   3868.283u    194.900s    610.437w   6741 calls
Grad: S                             :    526.617u     29.283s     83.566w   6741 calls
Grad: JK                            : 767399.317u  55869.483s 148208.999w   6741 calls
JKGrad: Amn                         : 118496.950u  13179.133s  25563.973w   6741 calls
JKGrad: Awmn                        : 144907.850u  13434.667s  32298.981w   6741 calls
JKGrad: AB                          :  52305.383u   4298.817s   8636.355w   6741 calls
JKGrad: UV                          :  20679.517u   2324.233s   3463.337w   6741 calls
JKGrad: ABx                         :   6500.717u    501.667s   1050.890w   6741 calls
JKGrad: Amnx                        : 424139.067u  21900.433s  77005.448w   6741 calls
Grad: XC                            : 160280.417u   1913.267s  24458.938w   6741 calls
V_xc gradient                       :  27513.908p                         28650313 calls

--------------------------------------------------------------------------------------
V: Grid                             :  85317.833u   1617.067s  14609.152w   6742 calls
| build grid                        :  78610.067u   1309.000s  12392.893w   6742 calls
| post-process grid                 :   6695.383u    307.467s   2213.946w   6742 calls
DFH: sparsity prep                  :   1466.283u     96.367s    939.771w   6742 calls
| Libint2ERI::Libint2ERI            :   1013.317u     81.317s    658.337w   6742 calls
DFH: initialize()                   : 556395.200u  26361.267s  95460.640w   6742 calls
| Libint2ERI::Libint2ERI            :   3974.233u    165.833s    655.731w  33710 calls
| Libint2ErfERI::Libint2ErfERI      :   3674.083u    135.183s    684.095w   6742 calls
| DFH: AO Construction              :  98967.700u   3955.667s  15461.830w  10890 calls
| DFH: AO-Met. Contraction          : 197354.233u   4844.917s  31365.164w  21780 calls
| DFH: wAO Construction             : 121146.933u   1103.650s  18360.110w  10890 calls
| DFH: wAO Copy                     :  29247.750u   1614.167s   5313.527w  10890 calls
HF: Form core H                     :   2560.317u    193.800s    413.403w   6742 calls
HF: Form S/X                        :   1089.717u    100.950s    178.786w   6742 calls
HF: Guess                           :  11635.350u   1309.217s   1943.058w   6742 calls
| SAD Guess                         :  11479.600u   1287.267s   1916.173w   6742 calls
HF: Form G                          : 1833495.483u 155347.883s 315834.592w 103572 calls
| RV: Form V                        : 869097.333u  27538.733s 134554.910w 103572 calls
| | Properties                      : 199618.107p                         440430503 calls
| | Functional                      :  62230.050p                         440430503 calls
| | V_xc                            : 273618.887p                         440430503 calls
| JK: D                             :    196.350u     15.050s     41.158w 103572 calls
| JK: USO2AO                        :     44.900u      3.450s      4.125w 103572 calls
| JK: JK                            : 963429.150u 127734.333s 181117.268w 103572 calls
| | DFH: compute_JK()               : 421343.750u  48416.550s  71907.260w 103572 calls
| | | DFH: Grabbing AOs             :      3.433u      0.200s      0.424w 103572 calls
| | | DFH: compute_J                :  28160.683u   6603.300s   5234.479w 103572 calls
| | | DFH: compute_K                : 272258.117u   8596.933s  42257.784w 103572 calls
| | DFH: compute_wK()               : 541473.067u  79270.567s 109116.303w 103572 calls
| JK: AO2USO                        :      1.767u      0.033s      0.271w 103572 calls
HF: Form F                          :    289.500u     26.517s     50.807w 103572 calls
HF: Form D                          :    169.533u     10.400s     33.342w 103572 calls
HF: DIIS                            :  17276.850u   2518.767s   2971.778w  96830 calls
HF: Form C                          :  13401.250u    877.867s   2144.208w  96830 calls
Grad: V T Perturb                   :   3868.283u    194.900s    610.437w   6741 calls
Grad: S                             :    526.617u     29.283s     83.566w   6741 calls
Grad: JK                            : 767399.317u  55869.483s 148208.999w   6741 calls
| JKGrad: Amn                       : 118496.950u  13179.133s  25563.973w   6741 calls
| | Libint2ERI::Libint2ERI          :   5993.200u    420.217s    967.661w   6741 calls
| JKGrad: Awmn                      : 144907.850u  13434.667s  32298.981w   6741 calls
| | Libint2ErfERI::Libint2ErfERI    :   6225.517u    575.733s   3869.124w  26964 calls
| JKGrad: AB                        :  52305.383u   4298.817s   8636.355w   6741 calls
| | Libint2ERI::Libint2ERI          :    121.300u     24.033s     56.173w  26964 calls
| JKGrad: UV                        :  20679.517u   2324.233s   3463.337w   6741 calls
| JKGrad: ABx                       :   6500.717u    501.667s   1050.890w   6741 calls
| | Libint2ERI::Libint2ERI          :    104.400u     13.583s     17.674w   6741 calls
| JKGrad: Amnx                      : 424139.067u  21900.433s  77005.448w   6741 calls
| | Libint2ERI::Libint2ERI          :   4922.917u    289.483s    783.746w   6741 calls
| | Libint2ErfERI::Libint2ErfERI    :   3688.500u    206.183s    868.333w   6741 calls
Grad: XC                            : 160280.417u   1913.267s  24458.938w   6741 calls
| Properties                        :  66582.868p                         28650313 calls
| Functional                        :   2687.439p                         28650313 calls
| V_xc gradient                     :  27513.908p                         28650313 calls

**************************************************************************************

Host: a002v96n001

Timers On : Mon Aug  7 11:37:58 2023
Timers Off: Mon Aug  7 11:37:58 2023

Wall Time:        0.38 seconds

                                                       Time (seconds)
Module                                       User      System        Wall        Calls

--------------------------------------------------------------------------------------

**************************************************************************************

Host: a002v96n001

Timers On : Mon Aug  7 11:37:58 2023
Timers Off: Mon Aug  7 11:37:58 2023

Wall Time:        0.38 seconds

                                                       Time (seconds)
Module                                       User      System        Wall        Calls

--------------------------------------------------------------------------------------

**************************************************************************************

Host: a002v96n001

Timers On : Mon Aug  7 11:37:58 2023
Timers Off: Mon Aug  7 11:37:58 2023

Wall Time:        0.38 seconds

                                                       Time (seconds)
Module                                       User      System        Wall        Calls

--------------------------------------------------------------------------------------

**************************************************************************************

Host: a002v96n001

Timers On : Mon Aug  7 11:37:58 2023
Timers Off: Mon Aug  7 11:37:58 2023

Wall Time:        0.38 seconds

                                                       Time (seconds)
Module                                       User      System        Wall        Calls

--------------------------------------------------------------------------------------

**************************************************************************************

Host: a002v96n001

Timers On : Mon Aug  7 11:37:58 2023
Timers Off: Mon Aug  7 11:37:59 2023

Wall Time:        0.41 seconds

                                                       Time (seconds)
Module                                       User      System        Wall        Calls

--------------------------------------------------------------------------------------

**************************************************************************************

Host: a002v96n001

Timers On : Mon Aug  7 11:37:59 2023
Timers Off: Mon Aug  7 11:37:59 2023

Wall Time:        0.40 seconds

                                                       Time (seconds)
Module                                       User      System        Wall        Calls

--------------------------------------------------------------------------------------

**************************************************************************************

Host: a002v96n001

Timers On : Mon Aug  7 11:37:59 2023
Timers Off: Mon Aug  7 11:37:59 2023

Wall Time:        0.51 seconds

                                                       Time (seconds)
Module                                       User      System        Wall        Calls

--------------------------------------------------------------------------------------

**************************************************************************************

Host: a002v96n001

Timers On : Mon Aug  7 11:37:59 2023
Timers Off: Mon Aug  7 11:37:59 2023

Wall Time:        0.50 seconds

                                                       Time (seconds)
Module                                       User      System        Wall        Calls

--------------------------------------------------------------------------------------

**************************************************************************************

Host: a002v96n001

Timers On : Mon Aug  7 11:37:59 2023
Timers Off: Mon Aug  7 11:38:00 2023

Wall Time:        0.47 seconds

                                                       Time (seconds)
Module                                       User      System        Wall        Calls

--------------------------------------------------------------------------------------

**************************************************************************************

Host: a002v96n001

Timers On : Mon Aug  7 11:37:59 2023
Timers Off: Mon Aug  7 11:38:00 2023

Wall Time:        0.41 seconds

                                                       Time (seconds)
Module                                       User      System        Wall        Calls

--------------------------------------------------------------------------------------

**************************************************************************************

Host: a002v96n001

Timers On : Mon Aug  7 11:37:59 2023
Timers Off: Mon Aug  7 11:38:00 2023

Wall Time:        0.44 seconds

                                                       Time (seconds)
Module                                       User      System        Wall        Calls

--------------------------------------------------------------------------------------

**************************************************************************************

Host: a002v96n001

Timers On : Mon Aug  7 11:37:59 2023
Timers Off: Mon Aug  7 11:38:00 2023

Wall Time:        0.48 seconds

                                                       Time (seconds)
Module                                       User      System        Wall        Calls

--------------------------------------------------------------------------------------

**************************************************************************************

Host: a002v96n001

Timers On : Mon Aug  7 11:37:59 2023
Timers Off: Mon Aug  7 11:38:00 2023

Wall Time:        0.57 seconds

                                                       Time (seconds)
Module                                       User      System        Wall        Calls

--------------------------------------------------------------------------------------

**************************************************************************************

Host: a002v96n001

Timers On : Mon Aug  7 11:38:00 2023
Timers Off: Mon Aug  7 11:38:01 2023

Wall Time:        0.38 seconds

                                                       Time (seconds)
Module                                       User      System        Wall        Calls

--------------------------------------------------------------------------------------

**************************************************************************************

Host: a002v96n001

Timers On : Mon Aug  7 11:38:00 2023
Timers Off: Mon Aug  7 11:38:01 2023

Wall Time:        0.43 seconds

                                                       Time (seconds)
Module                                       User      System        Wall        Calls

--------------------------------------------------------------------------------------

**************************************************************************************

Host: a002v96n001

Timers On : Mon Aug  7 11:38:00 2023
Timers Off: Mon Aug  7 11:38:01 2023

Wall Time:        0.40 seconds

                                                       Time (seconds)
Module                                       User      System        Wall        Calls

--------------------------------------------------------------------------------------

**************************************************************************************

Host: a002v96n001

Timers On : Mon Aug  7 11:38:00 2023
Timers Off: Mon Aug  7 11:38:01 2023

Wall Time:        0.39 seconds

                                                       Time (seconds)
Module                                       User      System        Wall        Calls

--------------------------------------------------------------------------------------

**************************************************************************************

Host: a002v96n001

Timers On : Mon Aug  7 11:38:01 2023
Timers Off: Mon Aug  7 11:38:01 2023

Wall Time:        0.38 seconds

                                                       Time (seconds)
Module                                       User      System        Wall        Calls

--------------------------------------------------------------------------------------

**************************************************************************************

Host: a002v96n001

Timers On : Mon Aug  7 11:38:00 2023
Timers Off: Mon Aug  7 11:38:01 2023

Wall Time:        0.67 seconds

                                                       Time (seconds)
Module                                       User      System        Wall        Calls

--------------------------------------------------------------------------------------

**************************************************************************************

Host: a002v96n001

Timers On : Mon Aug  7 11:38:01 2023
Timers Off: Mon Aug  7 11:38:01 2023

Wall Time:        0.62 seconds

                                                       Time (seconds)
Module                                       User      System        Wall        Calls

--------------------------------------------------------------------------------------

**************************************************************************************

Host: a002v96n001

Timers On : Mon Aug  7 11:38:01 2023
Timers Off: Mon Aug  7 11:38:01 2023

Wall Time:        0.65 seconds

                                                       Time (seconds)
Module                                       User      System        Wall        Calls

--------------------------------------------------------------------------------------

**************************************************************************************

Host: a002v96n001

Timers On : Mon Aug  7 11:38:01 2023
Timers Off: Mon Aug  7 11:38:02 2023

Wall Time:        0.68 seconds

                                                       Time (seconds)
Module                                       User      System        Wall        Calls

--------------------------------------------------------------------------------------

**************************************************************************************

Host: a002v96n001

Timers On : Mon Aug  7 11:38:02 2023
Timers Off: Mon Aug  7 11:38:03 2023

Wall Time:        0.68 seconds

                                                       Time (seconds)
Module                                       User      System        Wall        Calls

--------------------------------------------------------------------------------------

**************************************************************************************

Host: a002v96n001

Timers On : Mon Aug  7 11:38:03 2023
Timers Off: Mon Aug  7 11:38:03 2023

Wall Time:        0.44 seconds

                                                       Time (seconds)
Module                                       User      System        Wall        Calls

--------------------------------------------------------------------------------------

**************************************************************************************
